<?xml version="1.0" encoding="UTF-8"?>

<!-- generated on 7/12/2016 3:44:25 PM by SUMO gui Version 0.26.0
<?xml version="1.0" encoding="UTF-8"?>

<configuration xmlns:xsi="http://www.w3.org/2001/XMLSchema-instance" xsi:noNamespaceSchemaLocation="http://sumo.dlr.de/xsd/sumo-gui.exeConfiguration.xsd">

    <input>
        <net-file value="map.net.xml"/>
        <route-files value="map.rou.xml"/>
    </input>

    <output>
        <fcd-output value="fcd.xml"/>
        <fcd-output.geo value="true"/>
    </output>

    <report>
        <duration-log.disable value="true"/>
        <no-step-log value="true"/>
    </report>

</configuration>
-->

<fcd-export xmlns:xsi="http://www.w3.org/2001/XMLSchema-instance" xsi:noNamespaceSchemaLocation="http://sumo.dlr.de/xsd/fcd_file.xsd">
    <timestep time="0.00">
        <vehicle id="0" x="8.578218" y="49.873067" angle="310.743855" type="large" speed="0.000000" pos="7.200000" lane="388248010_0" slope="0.000000"/>
    </timestep>
    <timestep time="1.00">
        <vehicle id="0" x="8.578209" y="49.873072" angle="310.743855" type="large" speed="0.836879" pos="8.036879" lane="388248010_0" slope="0.000000"/>
        <vehicle id="1" x="8.578188" y="49.873044" angle="310.741897" type="large" speed="0.000000" pos="7.200000" lane="388248010_1" slope="0.000000"/>
    </timestep>
    <timestep time="2.00">
        <vehicle id="0" x="8.578191" y="49.873082" angle="310.743855" type="large" speed="1.753409" pos="9.790288" lane="388248010_0" slope="0.000000"/>
        <vehicle id="1" x="8.578178" y="49.873050" angle="310.741897" type="large" speed="0.980561" pos="8.180561" lane="388248010_1" slope="0.000000"/>
        <vehicle id="2" x="8.506256" y="49.921300" angle="151.955672" type="small" speed="0.000000" pos="5.100000" lane="24589896_0" slope="0.000000"/>
    </timestep>
    <timestep time="3.00">
        <vehicle id="0" x="8.578162" y="49.873098" angle="310.743855" type="large" speed="2.698980" pos="12.489268" lane="388248010_0" slope="0.000000"/>
        <vehicle id="1" x="8.578156" y="49.873062" angle="310.741897" type="large" speed="2.119685" pos="10.300246" lane="388248010_1" slope="0.000000"/>
        <vehicle id="2" x="8.506266" y="49.921287" angle="151.955672" type="small" speed="1.633765" pos="6.733765" lane="24589896_0" slope="0.000000"/>
    </timestep>
    <timestep time="4.00">
        <vehicle id="0" x="8.578123" y="49.873119" angle="310.743855" type="large" speed="3.695973" pos="16.185240" lane="388248010_0" slope="0.000000"/>
        <vehicle id="1" x="8.578124" y="49.873080" angle="310.741897" type="large" speed="2.982233" pos="13.282479" lane="388248010_1" slope="0.000000"/>
        <vehicle id="2" x="8.506294" y="49.921253" angle="151.955672" type="small" speed="4.225920" pos="10.959685" lane="24589896_0" slope="0.000000"/>
    </timestep>
    <timestep time="5.00">
        <vehicle id="0" x="8.578070" y="49.873148" angle="310.743855" type="large" speed="4.956805" pos="21.142046" lane="388248010_0" slope="0.000000"/>
        <vehicle id="1" x="8.578080" y="49.873104" angle="310.741897" type="large" speed="4.110298" pos="17.392776" lane="388248010_1" slope="0.000000"/>
        <vehicle id="2" x="8.506335" y="49.921205" angle="151.955672" type="small" speed="6.089761" pos="17.049447" lane="24589896_0" slope="0.000000"/>
        <vehicle id="3" x="8.578211" y="49.873032" angle="310.741897" type="small" speed="0.000000" pos="5.100000" lane="388248010_1" slope="0.000000"/>
    </timestep>
    <timestep time="6.00">
        <vehicle id="0" x="8.578008" y="49.873183" angle="310.743855" type="large" speed="5.923377" pos="27.065423" lane="388248010_0" slope="0.000000"/>
        <vehicle id="1" x="8.578028" y="49.873133" angle="310.741897" type="large" speed="4.965953" pos="22.358730" lane="388248010_1" slope="0.000000"/>
        <vehicle id="2" x="8.506390" y="49.921140" angle="151.955672" type="small" speed="8.271208" pos="25.320655" lane="24589896_0" slope="0.000000"/>
        <vehicle id="3" x="8.578184" y="49.873047" angle="310.741897" type="small" speed="2.539943" pos="7.639943" lane="388248010_1" slope="0.000000"/>
    </timestep>
    <timestep time="7.00">
        <vehicle id="0" x="8.577937" y="49.873222" angle="310.743855" type="large" speed="6.687577" pos="33.753000" lane="388248010_0" slope="0.000000"/>
        <vehicle id="1" x="8.577966" y="49.873167" angle="310.741897" type="large" speed="5.854193" pos="28.212923" lane="388248010_1" slope="0.000000"/>
        <vehicle id="2" x="8.506458" y="49.921057" angle="152.382711" type="small" speed="10.472025" pos="35.792680" lane="24589896_0" slope="0.000000"/>
        <vehicle id="3" x="8.578143" y="49.873069" angle="310.741897" type="small" speed="3.821119" pos="11.461062" lane="388248010_1" slope="0.000000"/>
    </timestep>
    <timestep time="8.00">
        <vehicle id="0" x="8.577854" y="49.873267" angle="310.743855" type="large" speed="7.833711" pos="41.586711" lane="388248010_0" slope="0.000000"/>
        <vehicle id="1" x="8.577893" y="49.873207" angle="310.741897" type="large" speed="6.896418" pos="35.109341" lane="388248010_1" slope="0.000000"/>
        <vehicle id="2" x="8.506536" y="49.920962" angle="152.382711" type="small" speed="11.918113" pos="47.710793" lane="24589896_0" slope="0.000000"/>
        <vehicle id="3" x="8.578083" y="49.873103" angle="310.741897" type="small" speed="5.713512" pos="17.174574" lane="388248010_1" slope="0.000000"/>
    </timestep>
    <timestep time="9.00">
        <vehicle id="0" x="8.577758" y="49.873320" angle="310.743855" type="large" speed="9.030292" pos="50.617003" lane="388248010_0" slope="0.000000"/>
        <vehicle id="1" x="8.577808" y="49.873254" angle="310.741897" type="large" speed="8.000273" pos="43.109614" lane="388248010_1" slope="0.000000"/>
        <vehicle id="2" x="8.506631" y="49.920847" angle="152.382711" type="small" speed="14.475970" pos="62.186763" lane="24589896_0" slope="0.000000"/>
        <vehicle id="3" x="8.578013" y="49.873141" angle="310.741897" type="small" speed="6.621240" pos="23.795814" lane="388248010_1" slope="0.000000"/>
        <vehicle id="9" x="8.506310" y="49.921297" angle="151.955672" type="large" speed="0.000000" pos="7.200000" lane="24589896_1" slope="0.000000"/>
    </timestep>
    <timestep time="10.00">
        <vehicle id="0" x="8.577650" y="49.873380" angle="310.743855" type="large" speed="10.248793" pos="60.865796" lane="388248010_0" slope="0.000000"/>
        <vehicle id="1" x="8.577712" y="49.873307" angle="310.741897" type="large" speed="9.084923" pos="52.194536" lane="388248010_1" slope="0.000000"/>
        <vehicle id="2" x="8.506737" y="49.920719" angle="152.382711" type="small" speed="16.185378" pos="78.372141" lane="24589896_0" slope="0.000000"/>
        <vehicle id="3" x="8.577921" y="49.873192" angle="310.741897" type="small" speed="8.688348" pos="32.484162" lane="388248010_1" slope="0.000000"/>
        <vehicle id="9" x="8.506319" y="49.921287" angle="151.955672" type="large" speed="1.280615" pos="8.480615" lane="24589896_1" slope="0.000000"/>
    </timestep>
    <timestep time="11.00">
        <vehicle id="0" x="8.577528" y="49.873447" angle="310.743855" type="large" speed="11.439625" pos="72.305421" lane="388248010_0" slope="0.000000"/>
        <vehicle id="1" x="8.577604" y="49.873366" angle="310.741897" type="large" speed="10.213275" pos="62.407812" lane="388248010_1" slope="0.000000"/>
        <vehicle id="11" x="8.578211" y="49.873032" angle="310.741897" type="small" speed="0.000000" pos="5.100000" lane="388248010_1" slope="0.000000"/>
        <vehicle id="2" x="8.506851" y="49.920579" angle="152.382711" type="small" speed="17.531472" pos="95.903613" lane="24589896_0" slope="0.000000"/>
        <vehicle id="3" x="8.577824" y="49.873245" angle="310.741897" type="small" speed="9.136336" pos="41.620498" lane="388248010_1" slope="0.000000"/>
        <vehicle id="9" x="8.506334" y="49.921269" angle="151.955672" type="large" speed="2.313241" pos="10.793856" lane="24589896_1" slope="0.000000"/>
    </timestep>
    <timestep time="12.00">
        <vehicle id="0" x="8.577398" y="49.873519" angle="310.743855" type="large" speed="12.352077" pos="84.657498" lane="388248010_0" slope="0.000000"/>
        <vehicle id="1" x="8.577482" y="49.873433" angle="310.741897" type="large" speed="11.455411" pos="73.863222" lane="388248010_1" slope="0.000000"/>
        <vehicle id="11" x="8.578193" y="49.873042" angle="310.741897" type="small" speed="1.669772" pos="6.769772" lane="388248010_1" slope="0.000000"/>
        <vehicle id="2" x="8.506976" y="49.920428" angle="152.382711" type="small" speed="19.076262" pos="114.979875" lane="24589896_0" slope="0.000000"/>
        <vehicle id="3" x="8.577721" y="49.873301" angle="310.741897" type="small" speed="9.669058" pos="51.289556" lane="388248010_1" slope="0.000000"/>
        <vehicle id="9" x="8.506357" y="49.921242" angle="151.955672" type="large" speed="3.456338" pos="14.250194" lane="24589896_1" slope="0.000000"/>
    </timestep>
    <timestep time="13.00">
        <vehicle id="0" x="8.577257" y="49.873596" angle="310.743855" type="large" speed="13.275033" pos="97.932531" lane="388248010_0" slope="0.000000"/>
        <vehicle id="1" x="8.577354" y="49.873504" angle="310.741897" type="large" speed="12.131450" pos="85.994672" lane="388248010_1" slope="0.000000"/>
        <vehicle id="11" x="8.578155" y="49.873063" angle="310.741897" type="small" speed="3.629429" pos="10.399201" lane="388248010_1" slope="0.000000"/>
        <vehicle id="2" x="8.507105" y="49.920265" angle="155.807644" type="small" speed="20.460693" pos="4.420568" lane="24589936_0" slope="0.000000"/>
        <vehicle id="3" x="8.577599" y="49.873369" angle="310.741897" type="small" speed="11.561041" pos="62.850597" lane="388248010_1" slope="0.000000"/>
        <vehicle id="9" x="8.506385" y="49.921207" angle="151.955672" type="large" speed="4.306792" pos="18.556986" lane="24589896_1" slope="0.000000"/>
    </timestep>
    <timestep time="14.00">
        <vehicle id="0" x="8.577103" y="49.873681" angle="310.743855" type="large" speed="14.556938" pos="112.489469" lane="388248010_0" slope="0.000000"/>
        <vehicle id="1" x="8.577213" y="49.873582" angle="310.741897" type="large" speed="13.312267" pos="99.306939" lane="388248010_1" slope="0.000000"/>
        <vehicle id="11" x="8.578091" y="49.873098" angle="310.741897" type="small" speed="6.032047" pos="16.431249" lane="388248010_1" slope="0.000000"/>
        <vehicle id="2" x="8.507236" y="49.920078" angle="156.088490" type="small" speed="22.841774" pos="27.262343" lane="24589936_0" slope="0.000000"/>
        <vehicle id="3" x="8.577474" y="49.873438" angle="310.741897" type="small" speed="11.767860" pos="74.618457" lane="388248010_1" slope="0.000000"/>
        <vehicle id="9" x="8.506418" y="49.921168" angle="151.955672" type="large" speed="4.986104" pos="23.543090" lane="24589896_1" slope="0.000000"/>
    </timestep>
    <timestep time="15.00">
        <vehicle id="0" x="8.576942" y="49.873770" angle="310.743855" type="large" speed="15.211963" pos="127.701432" lane="388248010_0" slope="0.000000"/>
        <vehicle id="1" x="8.577064" y="49.873663" angle="310.741897" type="large" speed="14.008998" pos="113.315937" lane="388248010_1" slope="0.000000"/>
        <vehicle id="11" x="8.578002" y="49.873147" angle="310.741897" type="small" speed="8.399376" pos="24.830624" lane="388248010_1" slope="0.000000"/>
        <vehicle id="15" x="8.506270" y="49.921283" angle="151.955672" type="large" speed="0.000000" pos="7.200000" lane="24589896_0" slope="0.000000"/>
        <vehicle id="2" x="8.507380" y="49.919872" angle="156.088490" type="small" speed="25.079280" pos="52.341623" lane="24589936_0" slope="0.000000"/>
        <vehicle id="3" x="8.577329" y="49.873518" angle="310.741897" type="small" speed="13.715939" pos="88.334395" lane="388248010_1" slope="0.000000"/>
        <vehicle id="9" x="8.506457" y="49.921121" angle="152.147060" type="large" speed="5.930704" pos="29.473794" lane="24589896_1" slope="0.000000"/>
    </timestep>
    <timestep time="16.00">
        <vehicle id="0" x="8.576767" y="49.873866" angle="310.743855" type="large" speed="16.459963" pos="144.161395" lane="388248010_0" slope="0.000000"/>
        <vehicle id="1" x="8.576903" y="49.873752" angle="310.741897" type="large" speed="15.174337" pos="128.490274" lane="388248010_1" slope="0.000000"/>
        <vehicle id="11" x="8.577886" y="49.873211" angle="310.741897" type="small" speed="10.938478" pos="35.769103" lane="388248010_1" slope="0.000000"/>
        <vehicle id="15" x="8.506277" y="49.921275" angle="151.955672" type="large" speed="1.079641" pos="8.279641" lane="24589896_0" slope="0.000000"/>
        <vehicle id="2" x="8.507542" y="49.919648" angle="154.581858" type="small" speed="27.567457" pos="12.499080" lane="4374437_0" slope="0.000000"/>
        <vehicle id="3" x="8.577179" y="49.873600" angle="310.741897" type="small" speed="14.117022" pos="102.451417" lane="388248010_1" slope="0.000000"/>
        <vehicle id="9" x="8.506502" y="49.921067" angle="152.387794" type="large" speed="6.862059" pos="36.335853" lane="24589896_1" slope="0.000000"/>
    </timestep>
    <timestep time="17.00">
        <vehicle id="0" x="8.576582" y="49.873968" angle="310.743855" type="large" speed="17.506626" pos="161.668021" lane="388248010_0" slope="0.000000"/>
        <vehicle id="1" x="8.576733" y="49.873845" angle="310.741897" type="large" speed="16.033197" pos="144.523470" lane="388248010_1" slope="0.000000"/>
        <vehicle id="11" x="8.577751" y="49.873285" angle="310.741897" type="small" speed="12.738828" pos="48.507931" lane="388248010_1" slope="0.000000"/>
        <vehicle id="15" x="8.506291" y="49.921257" angle="151.955672" type="large" speed="2.191117" pos="10.470758" lane="24589896_0" slope="0.000000"/>
        <vehicle id="16" x="8.506296" y="49.921314" angle="151.955672" type="small" speed="0.000000" pos="5.100000" lane="24589896_1" slope="0.000000"/>
        <vehicle id="17" x="8.578188" y="49.873044" angle="310.741897" type="large" speed="0.000000" pos="7.200000" lane="388248010_1" slope="0.000000"/>
        <vehicle id="2" x="8.507722" y="49.919407" angle="154.581858" type="small" speed="29.710057" pos="42.209137" lane="4374437_0" slope="0.000000"/>
        <vehicle id="3" x="8.577021" y="49.873687" angle="310.741897" type="small" speed="14.940031" pos="117.391448" lane="388248010_1" slope="0.000000"/>
        <vehicle id="9" x="8.506555" y="49.921003" angle="152.387794" type="large" speed="8.024020" pos="44.359873" lane="24589896_1" slope="0.000000"/>
    </timestep>
    <timestep time="18.00">
        <vehicle id="0" x="8.576387" y="49.874075" angle="310.743855" type="large" speed="18.400227" pos="180.068248" lane="388248010_0" slope="0.000000"/>
        <vehicle id="1" x="8.576550" y="49.873946" angle="310.741897" type="large" speed="17.317697" pos="161.841167" lane="388248010_1" slope="0.000000"/>
        <vehicle id="11" x="8.577590" y="49.873374" angle="310.741897" type="small" speed="15.202694" pos="63.710626" lane="388248010_1" slope="0.000000"/>
        <vehicle id="15" x="8.506313" y="49.921232" angle="151.955672" type="large" speed="3.219953" pos="13.690711" lane="24589896_0" slope="0.000000"/>
        <vehicle id="16" x="8.506305" y="49.921303" angle="151.955672" type="small" speed="1.330130" pos="6.430130" lane="24589896_1" slope="0.000000"/>
        <vehicle id="17" x="8.578181" y="49.873049" angle="310.741897" type="large" speed="0.730900" pos="7.930900" lane="388248010_1" slope="0.000000"/>
        <vehicle id="2" x="8.507883" y="49.919143" angle="159.232149" type="small" speed="31.549536" pos="73.758672" lane="4374437_0" slope="0.000000"/>
        <vehicle id="3" x="8.576851" y="49.873780" angle="310.741897" type="small" speed="16.014093" pos="133.405541" lane="388248010_1" slope="0.000000"/>
        <vehicle id="9" x="8.506614" y="49.920931" angle="152.387794" type="large" speed="9.086656" pos="53.446530" lane="24589896_1" slope="0.000000"/>
    </timestep>
    <timestep time="19.00">
        <vehicle id="0" x="8.576183" y="49.874189" angle="311.726577" type="large" speed="19.433025" pos="8.461272" lane="14371343_0" slope="0.000000"/>
        <vehicle id="1" x="8.576359" y="49.874051" angle="310.741897" type="large" speed="18.049707" pos="179.890874" lane="388248010_1" slope="0.000000"/>
        <vehicle id="11" x="8.577414" y="49.873470" angle="310.741897" type="small" speed="16.539762" pos="80.250388" lane="388248010_1" slope="0.000000"/>
        <vehicle id="15" x="8.506341" y="49.921198" angle="151.955672" type="large" speed="4.243636" pos="17.934347" lane="24589896_0" slope="0.000000"/>
        <vehicle id="16" x="8.506327" y="49.921277" angle="151.955672" type="small" speed="3.337620" pos="9.767751" lane="24589896_1" slope="0.000000"/>
        <vehicle id="17" x="8.578161" y="49.873059" angle="310.741897" type="large" speed="1.838292" pos="9.769192" lane="388248010_1" slope="0.000000"/>
        <vehicle id="18" x="8.506270" y="49.921283" angle="151.955672" type="large" speed="0.000000" pos="7.200000" lane="24589896_0" slope="0.000000"/>
        <vehicle id="2" x="8.508051" y="49.918862" angle="159.232149" type="small" speed="33.509051" pos="107.267724" lane="4374437_0" slope="0.000000"/>
        <vehicle id="3" x="8.576672" y="49.873879" angle="310.741897" type="small" speed="16.951181" pos="150.356722" lane="388248010_1" slope="0.000000"/>
        <vehicle id="9" x="8.506679" y="49.920852" angle="152.387794" type="large" speed="9.924670" pos="63.371200" lane="24589896_1" slope="0.000000"/>
    </timestep>
    <timestep time="20.00">
        <vehicle id="0" x="8.575972" y="49.874309" angle="311.726577" type="large" speed="20.278361" pos="28.739634" lane="14371343_0" slope="0.000000"/>
        <vehicle id="1" x="8.576161" y="49.874162" angle="311.738605" type="large" speed="18.886766" pos="7.737640" lane="14371343_1" slope="0.000000"/>
        <vehicle id="11" x="8.577221" y="49.873577" angle="310.741897" type="small" speed="18.212504" pos="98.462892" lane="388248010_1" slope="0.000000"/>
        <vehicle id="15" x="8.506375" y="49.921157" angle="151.955672" type="large" speed="5.240524" pos="23.174872" lane="24589896_0" slope="0.000000"/>
        <vehicle id="16" x="8.506364" y="49.921233" angle="151.955672" type="small" speed="5.572052" pos="15.339802" lane="24589896_1" slope="0.000000"/>
        <vehicle id="17" x="8.578129" y="49.873077" angle="310.741897" type="large" speed="3.046540" pos="12.815732" lane="388248010_1" slope="0.000000"/>
        <vehicle id="18" x="8.506275" y="49.921276" angle="151.955672" type="large" speed="0.869818" pos="8.069818" lane="24589896_0" slope="0.000000"/>
        <vehicle id="2" x="8.508232" y="49.918561" angle="159.232149" type="small" speed="35.977068" pos="143.244791" lane="4374437_0" slope="0.000000"/>
        <vehicle id="3" x="8.576478" y="49.873986" angle="310.741897" type="small" speed="18.264809" pos="168.621531" lane="388248010_1" slope="0.000000"/>
        <vehicle id="9" x="8.506749" y="49.920767" angle="152.387794" type="large" speed="10.717019" pos="74.088219" lane="24589896_1" slope="0.000000"/>
    </timestep>
    <timestep time="21.00">
        <vehicle id="0" x="8.575750" y="49.874435" angle="311.587279" type="large" speed="21.336814" pos="10.586448" lane="4374441_0" slope="0.000000"/>
        <vehicle id="1" x="8.575956" y="49.874279" angle="311.738605" type="large" speed="19.613467" pos="27.351107" lane="14371343_1" slope="0.000000"/>
        <vehicle id="11" x="8.577003" y="49.873697" angle="310.741897" type="small" speed="20.612873" pos="119.075764" lane="388248010_1" slope="0.000000"/>
        <vehicle id="15" x="8.506418" y="49.921105" angle="152.157460" type="large" speed="6.512838" pos="29.687709" lane="24589896_0" slope="0.000000"/>
        <vehicle id="16" x="8.506410" y="49.921178" angle="151.955672" type="small" speed="6.900374" pos="22.240177" lane="24589896_1" slope="0.000000"/>
        <vehicle id="17" x="8.578089" y="49.873099" angle="310.741897" type="large" speed="3.758663" pos="16.574395" lane="388248010_1" slope="0.000000"/>
        <vehicle id="18" x="8.506288" y="49.921261" angle="151.955672" type="large" speed="1.915888" pos="9.985706" lane="24589896_0" slope="0.000000"/>
        <vehicle id="2" x="8.508400" y="49.918237" angle="161.990665" type="small" speed="37.953039" pos="181.197830" lane="4374437_0" slope="0.000000"/>
        <vehicle id="3" x="8.576286" y="49.874091" angle="310.741897" type="small" speed="18.121301" pos="186.742832" lane="388248010_1" slope="0.000000"/>
        <vehicle id="9" x="8.506825" y="49.920675" angle="152.387794" type="large" speed="11.578054" pos="85.666273" lane="24589896_1" slope="0.000000"/>
    </timestep>
    <timestep time="22.00">
        <vehicle id="0" x="8.575516" y="49.874568" angle="311.587279" type="large" speed="22.412852" pos="32.999300" lane="4374441_0" slope="0.000000"/>
        <vehicle id="1" x="8.575743" y="49.874400" angle="311.587575" type="large" speed="20.482321" pos="8.343428" lane="4374441_1" slope="0.000000"/>
        <vehicle id="11" x="8.576765" y="49.873828" angle="310.741897" type="small" speed="22.467534" pos="141.543298" lane="388248010_1" slope="0.000000"/>
        <vehicle id="15" x="8.506467" y="49.921046" angle="152.382711" type="large" speed="7.429928" pos="37.117638" lane="24589896_0" slope="0.000000"/>
        <vehicle id="16" x="8.506467" y="49.921110" angle="152.346851" type="small" speed="8.615272" pos="30.855448" lane="24589896_1" slope="0.000000"/>
        <vehicle id="17" x="8.578036" y="49.873128" angle="310.741897" type="large" speed="4.991794" pos="21.566189" lane="388248010_1" slope="0.000000"/>
        <vehicle id="18" x="8.506308" y="49.921237" angle="151.955672" type="large" speed="3.035653" pos="13.021360" lane="24589896_0" slope="0.000000"/>
        <vehicle id="2" x="8.508576" y="49.917895" angle="161.990665" type="small" speed="39.992923" pos="221.190753" lane="4374437_0" slope="0.000000"/>
        <vehicle id="3" x="8.576085" y="49.874205" angle="311.738605" type="small" speed="19.329736" pos="15.032568" lane="14371343_1" slope="0.000000"/>
        <vehicle id="9" x="8.506907" y="49.920574" angle="152.387794" type="large" speed="12.631408" pos="98.297680" lane="24589896_1" slope="0.000000"/>
    </timestep>
    <timestep time="23.00">
        <vehicle id="0" x="8.575273" y="49.874706" angle="311.587279" type="large" speed="23.179137" pos="56.178437" lane="4374441_0" slope="0.000000"/>
        <vehicle id="1" x="8.575520" y="49.874527" angle="311.587575" type="large" speed="21.365591" pos="29.709018" lane="4374441_1" slope="0.000000"/>
        <vehicle id="11" x="8.576506" y="49.873970" angle="310.741897" type="small" speed="24.440035" pos="165.983333" lane="388248010_1" slope="0.000000"/>
        <vehicle id="15" x="8.506522" y="49.920980" angle="152.382711" type="large" speed="8.372923" pos="45.490561" lane="24589896_0" slope="0.000000"/>
        <vehicle id="16" x="8.506532" y="49.921030" angle="152.387794" type="small" speed="10.061900" pos="40.917349" lane="24589896_1" slope="0.000000"/>
        <vehicle id="17" x="8.577976" y="49.873161" angle="310.741897" type="large" speed="5.704607" pos="27.270796" lane="388248010_1" slope="0.000000"/>
        <vehicle id="18" x="8.506337" y="49.921203" angle="151.955672" type="large" speed="4.326147" pos="17.347507" lane="24589896_0" slope="0.000000"/>
        <vehicle id="2" x="8.508756" y="49.917542" angle="163.593866" type="small" speed="41.364704" pos="262.555457" lane="4374437_0" slope="0.000000"/>
        <vehicle id="3" x="8.575877" y="49.874324" angle="311.738605" type="small" speed="19.912300" pos="34.944867" lane="14371343_1" slope="0.000000"/>
        <vehicle id="9" x="8.506994" y="49.920469" angle="152.387794" type="large" speed="13.293786" pos="111.591466" lane="24589896_1" slope="0.000000"/>
    </timestep>
    <timestep time="24.00">
        <vehicle id="0" x="8.575022" y="49.874848" angle="311.587279" type="large" speed="23.960466" pos="80.138903" lane="4374441_0" slope="0.000000"/>
        <vehicle id="1" x="8.575285" y="49.874660" angle="311.587575" type="large" speed="22.440800" pos="52.149818" lane="4374441_1" slope="0.000000"/>
        <vehicle id="11" x="8.576234" y="49.874120" angle="310.884943" type="small" speed="25.759789" pos="0.703123" lane="14371343_1" slope="0.000000"/>
        <vehicle id="15" x="8.506583" y="49.920905" angle="152.382711" type="large" speed="9.452667" pos="54.943227" lane="24589896_0" slope="0.000000"/>
        <vehicle id="16" x="8.506607" y="49.920939" angle="152.387794" type="small" speed="11.467683" pos="52.385031" lane="24589896_1" slope="0.000000"/>
        <vehicle id="17" x="8.577905" y="49.873200" angle="310.741897" type="large" speed="6.688440" pos="33.959236" lane="388248010_1" slope="0.000000"/>
        <vehicle id="18" x="8.506374" y="49.921158" angle="151.955672" type="large" speed="5.625591" pos="22.973098" lane="24589896_0" slope="0.000000"/>
        <vehicle id="2" x="8.508926" y="49.917168" angle="164.008060" type="small" speed="43.353332" pos="305.908790" lane="4374437_0" slope="0.000000"/>
        <vehicle id="24" x="8.506296" y="49.921314" angle="151.955672" type="small" speed="0.000000" pos="5.100000" lane="24589896_1" slope="0.000000"/>
        <vehicle id="3" x="8.575650" y="49.874453" angle="311.587575" type="small" speed="21.805347" pos="17.260215" lane="4374441_1" slope="0.000000"/>
        <vehicle id="9" x="8.507087" y="49.920356" angle="152.387794" type="large" speed="14.165678" pos="125.757145" lane="24589896_1" slope="0.000000"/>
    </timestep>
    <timestep time="25.00">
        <vehicle id="0" x="8.574764" y="49.874995" angle="311.587279" type="large" speed="24.727889" pos="104.866792" lane="4374441_0" slope="0.000000"/>
        <vehicle id="1" x="8.575037" y="49.874800" angle="311.587575" type="large" speed="23.666477" pos="75.816295" lane="4374441_1" slope="0.000000"/>
        <vehicle id="11" x="8.575965" y="49.874274" angle="311.738605" type="small" speed="25.842496" pos="26.545619" lane="14371343_1" slope="0.000000"/>
        <vehicle id="15" x="8.506650" y="49.920824" angle="152.382711" type="large" speed="10.104781" pos="65.048008" lane="24589896_0" slope="0.000000"/>
        <vehicle id="16" x="8.506693" y="49.920835" angle="152.387794" type="small" speed="13.048437" pos="65.433469" lane="24589896_1" slope="0.000000"/>
        <vehicle id="17" x="8.577826" y="49.873244" angle="310.741897" type="large" speed="7.440053" pos="41.399289" lane="388248010_1" slope="0.000000"/>
        <vehicle id="18" x="8.506418" y="49.921106" angle="152.151093" type="large" speed="6.608752" pos="29.581850" lane="24589896_0" slope="0.000000"/>
        <vehicle id="2" x="8.509103" y="49.916775" angle="165.098455" type="small" speed="45.441821" pos="351.350611" lane="4374437_0" slope="0.000000"/>
        <vehicle id="24" x="8.506309" y="49.921298" angle="151.955672" type="small" speed="1.998247" pos="7.098247" lane="24589896_1" slope="0.000000"/>
        <vehicle id="3" x="8.575422" y="49.874582" angle="311.587575" type="small" speed="21.818616" pos="39.078831" lane="4374441_1" slope="0.000000"/>
        <vehicle id="9" x="8.507177" y="49.920235" angle="156.089371" type="large" speed="14.857166" pos="9.594311" lane="24589936_1" slope="0.000000"/>
    </timestep>
    <timestep time="26.00">
        <vehicle id="0" x="8.574496" y="49.875146" angle="311.587279" type="large" speed="25.557846" pos="130.424639" lane="4374441_0" slope="0.000000"/>
        <vehicle id="1" x="8.574779" y="49.874946" angle="311.587575" type="large" speed="24.676233" pos="100.492528" lane="4374441_1" slope="0.000000"/>
        <vehicle id="11" x="8.575699" y="49.874425" angle="311.587575" type="small" speed="25.516764" pos="12.572383" lane="4374441_1" slope="0.000000"/>
        <vehicle id="15" x="8.506723" y="49.920736" angle="152.382711" type="large" speed="11.166550" pos="76.214558" lane="24589896_0" slope="0.000000"/>
        <vehicle id="16" x="8.506794" y="49.920713" angle="152.387794" type="small" speed="15.443537" pos="80.877006" lane="24589896_1" slope="0.000000"/>
        <vehicle id="17" x="8.577734" y="49.873294" angle="310.741897" type="large" speed="8.655880" pos="50.055169" lane="388248010_1" slope="0.000000"/>
        <vehicle id="18" x="8.506466" y="49.921047" angle="152.382711" type="large" speed="7.387617" pos="36.969468" lane="24589896_0" slope="0.000000"/>
        <vehicle id="2" x="8.509270" y="49.916362" angle="165.734230" type="small" speed="47.463842" pos="398.814453" lane="4374437_0" slope="0.000000"/>
        <vehicle id="24" x="8.506335" y="49.921268" angle="151.955672" type="small" speed="3.844814" pos="10.943062" lane="24589896_1" slope="0.000000"/>
        <vehicle id="25" x="8.506270" y="49.921283" angle="151.955672" type="large" speed="0.000000" pos="7.200000" lane="24589896_0" slope="0.000000"/>
        <vehicle id="3" x="8.575172" y="49.874723" angle="311.587575" type="small" speed="23.824354" pos="62.903185" lane="4374441_1" slope="0.000000"/>
        <vehicle id="9" x="8.507269" y="49.920104" angle="156.089371" type="large" speed="16.022288" pos="25.616599" lane="24589936_1" slope="0.000000"/>
    </timestep>
    <timestep time="27.00">
        <vehicle id="0" x="8.574217" y="49.875305" angle="311.587279" type="large" speed="26.730875" pos="157.155514" lane="4374441_0" slope="0.000000"/>
        <vehicle id="1" x="8.574508" y="49.875100" angle="311.587575" type="large" speed="25.912726" pos="126.405253" lane="4374441_1" slope="0.000000"/>
        <vehicle id="11" x="8.575420" y="49.874583" angle="311.587575" type="small" speed="26.695858" pos="39.268241" lane="4374441_1" slope="0.000000"/>